# vtk DataFile Version 3.0
Debris Particles | Time = 1.600 s
ASCII
DATASET POLYDATA
POINTS 25 float
24.0000 -17.0000 6.0000
20.0000 -18.0000 2.0000
22.0000 -11.0000 -1.0000
15.0000 -16.0000 -2.0000
30.0000 -18.0000 4.0000
25.0000 -17.0000 -6.0000
34.0000 -18.0000 -1.0000
28.0000 -13.0000 5.0000
25.0000 -11.0000 -3.0000
25.0000 -11.0000 2.0000
26.0000 -17.0000 7.0000
22.0000 -13.0000 7.0000
26.0000 -16.0000 -6.0000
16.0000 -15.0000 6.0000
30.0000 -13.0000 -3.0000
33.0000 -12.0000 5.0000
19.0000 -18.0000 0.0000
30.0000 -19.0000 -1.0000
19.0000 -19.0000 2.0000
27.0000 -11.0000 -1.0000
16.0000 -19.0000 -7.0000
28.0000 -17.0000 7.0000
28.0000 -17.0000 4.0000
22.0000 -20.0000 -4.0000
24.0000 -19.0000 3.0000

VERTICES 25 50
1 0
1 1
1 2
1 3
1 4
1 5
1 6
1 7
1 8
1 9
1 10
1 11
1 12
1 13
1 14
1 15
1 16
1 17
1 18
1 19
1 20
1 21
1 22
1 23
1 24

POINT_DATA 25
VECTORS Velocity float
-3.9000 -10.4000 -2.6000
-6.6000 -17.6000 4.4000
6.0000 -16.0000 -4.0000
1.8000 -4.8000 1.2000
5.7000 -15.2000 0.0000
3.0000 -8.0000 0.0000
-5.7000 -15.2000 0.0000
5.7000 -15.2000 -3.8000
-2.1000 -5.6000 1.4000
6.0000 -16.0000 -4.0000
-7.2000 -19.2000 -4.8000
6.3000 -16.8000 0.0000
-3.9000 -10.4000 -2.6000
4.2000 -11.2000 0.0000
3.6000 -9.6000 2.4000
4.2000 -11.2000 0.0000
2.1000 -5.6000 0.0000
1.5000 -4.0000 1.0000
-4.2000 -11.2000 0.0000
4.5000 -12.0000 -3.0000
-4.2000 -11.2000 2.8000
6.0000 -16.0000 4.0000
-7.2000 -19.2000 0.0000
-4.2000 -11.2000 0.0000
1.5000 -4.0000 1.0000
SCALARS Mass float
LOOKUP_TABLE default
0.010700
0.003200
0.009500
0.009000
0.010300
0.001100
0.009700
0.010800
0.010300
0.003700
0.003700
0.005800
0.005000
0.010700
0.007900
0.010600
0.008700
0.002400
0.008300
0.004100
0.001500
0.009300
0.003000
0.010000
0.004400
SCALARS ParticleID int
LOOKUP_TABLE default
0
1
2
3
4
5
6
7
8
9
10
11
12
13
14
15
16
17
18
19
20
21
22
23
24
