# vtk DataFile Version 3.0
Debris Particles | Time = 2.000 s
ASCII
DATASET POLYDATA
POINTS 61 float
24.0000 -17.0000 6.0000
20.0000 -18.0000 2.0000
22.0000 -11.0000 -1.0000
15.0000 -16.0000 -2.0000
30.0000 -18.0000 4.0000
25.0000 -17.0000 -6.0000
34.0000 -18.0000 -1.0000
28.0000 -13.0000 5.0000
25.0000 -11.0000 -3.0000
25.0000 -11.0000 2.0000
26.0000 -17.0000 7.0000
22.0000 -13.0000 7.0000
26.0000 -16.0000 -6.0000
16.0000 -15.0000 6.0000
30.0000 -13.0000 -3.0000
33.0000 -12.0000 5.0000
19.0000 -18.0000 0.0000
30.0000 -19.0000 -1.0000
19.0000 -19.0000 2.0000
27.0000 -11.0000 -1.0000
16.0000 -19.0000 -7.0000
28.0000 -17.0000 7.0000
28.0000 -17.0000 4.0000
22.0000 -20.0000 -4.0000
24.0000 -19.0000 3.0000
27.0000 -12.0000 5.0000
33.0000 -11.0000 -5.0000
23.0000 -15.0000 -2.0000
15.0000 -19.0000 0.0000
15.0000 -20.0000 4.0000
32.0000 -16.0000 5.0000
23.0000 -14.0000 4.0000
28.0000 -11.0000 -5.0000
23.0000 -18.0000 5.0000
20.0000 -11.0000 -5.0000
34.0000 -20.0000 1.0000
20.0000 -13.0000 -2.0000
22.0000 -16.0000 1.0000
18.0000 -16.0000 -6.0000
22.0000 -19.0000 0.0000
17.0000 -12.0000 6.0000
26.0000 -16.0000 -4.0000
30.0000 -17.0000 -3.0000
23.0000 -15.0000 5.0000
23.0000 -12.0000 -5.0000
15.0000 -17.0000 -3.0000
15.0000 -20.0000 -5.0000
33.0000 -16.0000 -5.0000
31.0000 -20.0000 2.0000
17.0000 -20.0000 3.0000
25.0000 -13.0000 2.0000
25.0000 -17.0000 -7.0000
24.0000 -17.0000 -5.0000
28.0000 -19.0000 -7.0000
34.0000 -17.0000 -3.0000
30.0000 -11.0000 -2.0000
26.0000 -16.0000 2.0000
15.0000 -20.0000 -6.0000
15.0000 -11.0000 4.0000
28.0000 -15.0000 -1.0000
32.0000 -19.0000 0.0000

VERTICES 61 122
1 0
1 1
1 2
1 3
1 4
1 5
1 6
1 7
1 8
1 9
1 10
1 11
1 12
1 13
1 14
1 15
1 16
1 17
1 18
1 19
1 20
1 21
1 22
1 23
1 24
1 25
1 26
1 27
1 28
1 29
1 30
1 31
1 32
1 33
1 34
1 35
1 36
1 37
1 38
1 39
1 40
1 41
1 42
1 43
1 44
1 45
1 46
1 47
1 48
1 49
1 50
1 51
1 52
1 53
1 54
1 55
1 56
1 57
1 58
1 59
1 60

POINT_DATA 61
VECTORS Velocity float
-3.9000 -10.4000 -2.6000
-6.6000 -17.6000 4.4000
6.0000 -16.0000 -4.0000
1.8000 -4.8000 1.2000
5.7000 -15.2000 0.0000
3.0000 -8.0000 0.0000
-5.7000 -15.2000 0.0000
5.7000 -15.2000 -3.8000
-2.1000 -5.6000 1.4000
6.0000 -16.0000 -4.0000
-7.2000 -19.2000 -4.8000
6.3000 -16.8000 0.0000
-3.9000 -10.4000 -2.6000
4.2000 -11.2000 0.0000
3.6000 -9.6000 2.4000
4.2000 -11.2000 0.0000
2.1000 -5.6000 0.0000
1.5000 -4.0000 1.0000
-4.2000 -11.2000 0.0000
4.5000 -12.0000 -3.0000
-4.2000 -11.2000 2.8000
6.0000 -16.0000 4.0000
-7.2000 -19.2000 0.0000
-4.2000 -11.2000 0.0000
1.5000 -4.0000 1.0000
5.7000 -15.2000 3.8000
5.7000 -15.2000 0.0000
6.9000 -18.4000 0.0000
2.7000 -7.2000 0.0000
-6.6000 -17.6000 0.0000
3.6000 -9.6000 -2.4000
-5.7000 -15.2000 3.8000
-4.8000 -12.8000 -3.2000
-5.1000 -13.6000 -3.4000
3.0000 -8.0000 2.0000
-2.4000 -6.4000 0.0000
3.6000 -9.6000 0.0000
-6.0000 -16.0000 -4.0000
5.4000 -14.4000 3.6000
1.8000 -4.8000 1.2000
5.7000 -15.2000 0.0000
3.3000 -8.8000 -2.2000
-1.8000 -4.8000 -1.2000
-5.7000 -15.2000 -3.8000
2.7000 -7.2000 1.8000
2.7000 -7.2000 -1.8000
2.1000 -5.6000 -1.4000
3.3000 -8.8000 2.2000
6.9000 -18.4000 4.6000
5.7000 -15.2000 0.0000
-4.8000 -12.8000 -3.2000
-4.8000 -12.8000 -3.2000
-1.8000 -4.8000 0.0000
-2.4000 -6.4000 -1.6000
-2.7000 -7.2000 -1.8000
2.1000 -5.6000 1.4000
3.6000 -9.6000 2.4000
-3.9000 -10.4000 -2.6000
-1.8000 -4.8000 -1.2000
3.0000 -8.0000 -2.0000
-1.8000 -4.8000 1.2000
SCALARS Mass float
LOOKUP_TABLE default
0.010700
0.003200
0.009500
0.009000
0.010300
0.001100
0.009700
0.010800
0.010300
0.003700
0.003700
0.005800
0.005000
0.010700
0.007900
0.010600
0.008700
0.002400
0.008300
0.004100
0.001500
0.009300
0.003000
0.010000
0.004400
0.004200
0.005600
0.005600
0.004600
0.009000
0.005300
0.006900
0.009100
0.002400
0.004000
0.003900
0.004200
0.009700
0.005900
0.010600
0.003100
0.001500
0.008300
0.004800
0.009400
0.003900
0.001100
0.006600
0.003000
0.006200
0.010200
0.010100
0.008200
0.006600
0.008400
0.009000
0.009500
0.001500
0.007900
0.006700
0.002800
SCALARS ParticleID int
LOOKUP_TABLE default
0
1
2
3
4
5
6
7
8
9
10
11
12
13
14
15
16
17
18
19
20
21
22
23
24
25
26
27
28
29
30
31
32
33
34
35
36
37
38
39
40
41
42
43
44
45
46
47
48
49
50
51
52
53
54
55
56
57
58
59
60
