# vtk DataFile Version 3.0
Debris Particles | Time = 1.400 s
ASCII
DATASET POLYDATA
POINTS 7 float
24.0000 -17.0000 6.0000
20.0000 -18.0000 2.0000
22.0000 -11.0000 -1.0000
15.0000 -16.0000 -2.0000
30.0000 -18.0000 4.0000
25.0000 -17.0000 -6.0000
34.0000 -18.0000 -1.0000

VERTICES 7 14
1 0
1 1
1 2
1 3
1 4
1 5
1 6

POINT_DATA 7
VECTORS Velocity float
-3.9000 -10.4000 -2.6000
-6.6000 -17.6000 4.4000
6.0000 -16.0000 -4.0000
1.8000 -4.8000 1.2000
5.7000 -15.2000 0.0000
3.0000 -8.0000 0.0000
-5.7000 -15.2000 0.0000
SCALARS Mass float
LOOKUP_TABLE default
0.010700
0.003200
0.009500
0.009000
0.010300
0.001100
0.009700
SCALARS ParticleID int
LOOKUP_TABLE default
0
1
2
3
4
5
6
